name,SMILES,number_ofC,molecular_weight,Density,molar_volume,melting_point,boiling_point,Tc,Pc,Vc,logP,pf_eigenvalue,fiedler_eigenvalue,degree_entropy,compression_ratio,number_ofC__norm,molecular_weight__norm,Density__norm,molar_volume__norm,melting_point__norm,boiling_point__norm,Tc__norm,Pc__norm,Vc__norm,logP__norm,pf_eigenvalue__norm,fiedler_eigenvalue__norm,degree_entropy__norm,compression_ratio__norm
methane,C,1,16.04,0.424,37.8,-183.0,-164,-82.0,45.6,99.0,1.09,0.0,0.0,-0.0,1.0,-3.8899229520310157,-3.8899039156058817,-5.201961496546507,-4.2457624256699456,-1.9047107862937895,-4.862047820120629,-5.310971112163296,3.779722958018173,-4.344955445771068,-3.3773266274754374,-6.633747540820826,-1.1703139610286377,-4.1840675081156595,-4.129551016605573
ethane,CC,2,30.07,0.546,55.1,-182.0,-89,32.0,39.6,148.0,1.81,1.0,2.0,-0.0,2.0,-3.314759247061449,-3.314634535443686,-2.8838672496113764,-3.62306133837524,-1.8798211680409822,-3.495158913847505,-3.5924182189501193,2.6415378765572424,-3.6755588611340277,-2.341120779112915,-3.341995039499445,6.422639858177139,-4.1840675081156595,-2.9185857148267274
propane,CCC,3,44.1,0.581,75.9,-188.0,-45,97.0,42.0,203.0,2.36,1.41,1.0,0.637,2.25,-2.7395955420918825,-2.7393651552814906,-2.218840211556218,-2.8743802623214902,-2.0291588775578266,-2.693250755500606,-2.6125415693110274,3.096811909141614,-2.924195347765922,-1.5495746449470997,-1.9923765139576786,2.626162948574251,-1.2649282055807805,-2.615844389382016
butane,CCCC,4,58.12,0.579,100.4,-138.0,1,153.0,36.0,255.0,2.89,1.62,0.586,0.693,2.67,-2.1644318371223163,-2.164505803187836,-2.2568417565879413,-1.992520341008179,-0.7846779649174552,-1.8548922263197565,-1.7683401480835022,1.958626827680684,-2.213815298763349,-0.7868120065691313,-1.301108488680188,1.054421507998655,-1.0083005745887035,-2.1072389626349004
isobutane,CC(C)C,4,58.12,0.593,98.0,-145.0,-12,135.0,36.0,263.0,2.76,1.73,1.0,0.562,2.67,-2.1644318371223163,-2.164505803187836,-1.9908309413658771,-2.078906619014381,-0.9589052926871072,-2.091819636740431,-2.0396906049066352,1.958626827680684,-2.1045260604552607,-0.9739047291901428,-0.9390157135348364,2.626162948574251,-1.6086259256594553,-2.1072389626349004
pentane,CCCCC,5,72.15,0.626,115.2,-129.0,36,197.0,32.7,304.0,3.23,1.73,0.382,0.673,3.12,-1.5892681321527498,-1.58923642302564,-1.36380544834244,-1.459804959969934,-0.5606714006421885,-1.2170107367256322,-1.1050390314047325,1.332625032877173,-1.544418714126309,-0.297492578175718,-0.9390157135348364,0.2799402184396658,-1.0999532999430164,-1.5623045768344197
isopentane,CC(C)CC,5,72.15,0.614,117.5,-160.0,28,188.0,32.9,308.0,2.3,1.85,0.519,0.95,3.12,-1.5892681321527498,-1.58923642302564,-1.5918147185327807,-1.377018110213991,-1.3322495664792187,-1.362812220061432,-1.240714259816299,1.3705645355925364,-1.4897740949722649,-1.6359251323106432,-0.5440054133762702,0.8000575550552617,0.16943694621422276,-1.5623045768344197
"2,2-dimethylpropane",CC(C)(C)C,5,72.15,0.613,117.7,-17.0,9,159.0,33.0,303.0,3.11,2.0,1.0,0.5,3.12,-1.5892681321527498,-1.58923642302564,-1.6108154910486425,-1.369819253713474,2.2269658436722435,-1.7090907429839568,-1.6778899958091245,1.389534286950219,-1.55807986891482,-0.4701935529028053,-0.050242538178063276,2.626162948574251,-1.8927493742578267,-1.5623045768344197
hexane,CCCCCC,6,86.18,0.659,130.7,-97.0,69,234.0,29.9,370.0,3.8,1.8,0.268,0.637,3.6,-1.0141044271831832,-1.0139670428634442,-0.7367799553190026,-0.9018935811798808,0.2357963834476493,-0.6155796179654577,-0.5472630923794033,0.8014719948620713,-0.6427824980845819,0.5228370517779455,-0.7085930384423395,-0.15285814925506344,-1.2649282055807805,-0.9810412319805736
2-methylpentane,CC(C)CCC,6,86.18,0.659,131.3,-154.0,60,225.0,29.9,367.0,3.21,1.9,0.325,1.01,3.6,-1.0141044271831832,-1.0139670428634442,-0.7367799553190026,-0.8802970116783295,-1.1829118569623742,-0.7796062867182325,-0.6829383207909698,0.8014719948620713,-0.6837659624501149,-0.3262760739635659,-0.37941778831020173,0.0635410345923012,0.44439512227716294,-0.9810412319805736
3-methylpentane,CCC(C)CC,6,86.18,0.664,129.8,-110.0,63,232.0,30.8,367.0,3.6,1.93,0.382,1.01,3.6,-1.0141044271831832,-1.0139670428634442,-0.641776092739694,-0.9342884354322057,-0.08776865383884727,-0.7249307304673076,-0.5774131431375291,0.9721997570812113,-0.6837659624501149,0.23500209389946736,-0.2806652132705602,0.2799402184396658,0.44439512227716294,-0.9810412319805736
"2,2-dimethylbutane",CC(C)(C)CC,6,86.18,0.649,132.7,-98.0,50,216.0,30.6,359.0,3.82,2.07,0.486,0.868,3.6,-1.0141044271831832,-1.0139670428634442,-0.9267876804776201,-0.8299050161747126,0.2109067651948419,-0.9618581408879824,-0.8186135492025364,0.934260254365847,-0.7930552007582031,0.5516205475657934,0.1801801369144329,0.6747738170383661,-0.2063392277384617,-0.9810412319805736
"3,3-dimethylbutane",CC(C)(C)CC,6,86.18,0.662,130.2,-129.0,58,227.0,30.9,357.95,3.42,2.07,0.486,0.868,3.6,-1.0141044271831832,-1.0139670428634442,-0.6797776377714175,-0.9198907224311729,-0.5606714006421885,-0.8160566575521825,-0.6527882700328439,0.9911695084388931,-0.8073994132861398,-0.024049368191163517,0.1801801369144329,0.6747738170383661,-0.2063392277384617,-0.9810412319805736
heptane,CCCCCCC,7,100.2,0.684,146.6,-90.0,98,267.0,27.0,432.0,3.5,1.85,0.198,0.598,4.08,-0.43894072221361674,-0.4391076907697892,-0.26176064242245933,-0.3295844893887931,0.4100237112173013,-0.08704924087318316,-0.04978725487032592,0.25134920548928863,0.20420909880310117,0.09108461496022799,-0.5440054133762702,-0.41861153292726566,-1.4436510200216917,-0.3997778871267275
2-methylhexane,CC(C)CCCC,7,100.2,0.679,147.6,-118.0,90,258.0,27.2,428.05,3.71,1.93,0.225,1.0,4.08,-0.43894072221361674,-0.4391076907697892,-0.356764505001768,-0.293590206886209,-0.2868855998613067,-0.23285072420898303,-0.18546248328189247,0.28928870820465286,0.15024753738848282,0.39331132073263037,-0.2806652132705602,-0.3161066563679877,0.39856875960000626,-0.3997778871267275
3-methylhexane,CCC(C)CCC,7,100.2,0.69,145.2,-119.0,92,262.0,28.1,418.03,,1.97,0.26,1.0,4.08,-0.43894072221361674,-0.4391076907697892,-0.14775600732729102,-0.3799764848924111,-0.3117752181141141,-0.19640035337503306,-0.12516238176564068,0.4600164704237928,0.013362766407601884,-0.024049368191163517,-0.1489951132177048,-0.18322996453188659,0.39856875960000626,-0.3997778871267275
"2,2-dimethylpentane",CC(C)(C)CCC,7,100.2,0.674,148.8,-125.0,79,248.0,28.4,416.03,,2.1,0.296,0.956,4.08,-0.43894072221361674,-0.4391076907697892,-0.4517683675810767,-0.25039706788310745,-0.4611129276309587,-0.43332776379570787,-0.33621273707252197,0.5169257244968388,-0.01395954316942015,-0.024049368191163517,0.27893271195407515,-0.046556795786182666,0.19693276382051678,-0.3997778871267275
"3,3-dimethylpentane",CCC(C)(C)CC,7,100.2,0.693,144.6,-135.0,86,263.0,30.0,419.13,,2.14,0.382,0.956,4.08,-0.43894072221361674,-0.4391076907697892,-0.09075368977970583,-0.40157305439396135,-0.710009110159033,-0.30575146587688296,-0.11008735638657771,0.8204417462197537,0.028390036674964314,-0.024049368191163517,0.41060281200693055,0.2799402184396658,0.19693276382051678,-0.3997778871267275
"2,3-dimethylpentane",CC(C)C(C)CC,7,100.2,0.694,144.3,-135.0,90,264.0,29.2,405.0,,2.05,0.322,0.956,4.08,-0.43894072221361674,-0.4391076907697892,-0.0717529172638441,-0.41237133914473595,-0.710009110159033,-0.23285072420898303,-0.09501233100751477,0.6686837353582963,-0.1646420804866963,-0.024049368191163517,0.11434508688800522,0.052151603863492525,0.19693276382051678,-0.3997778871267275
"2,4-dimethylpentane",CC(C)CC(C)C,7,100.2,0.673,148.9,-119.0,81,247.0,27.4,420.03,,2.0,0.268,0.956,4.08,-0.43894072221361674,-0.4391076907697892,-0.47076914009693843,-0.24679763963284923,-0.3117752181141141,-0.3968773929617579,-0.35128776245158494,0.3272282109200171,0.04068507598462392,-0.024049368191163517,-0.050242538178063276,-0.15285814925506344,0.19693276382051678,-0.3997778871267275
3-ethylpentane,CCC(CC)CC,7,100.2,0.699,143.4,-119.0,93,267.0,28.6,416.03,,2.0,0.382,1.0,4.08,-0.43894072221361674,-0.4391076907697892,0.02325094531546458,-0.4447661933970619,-0.3117752181141141,-0.17817516795805807,-0.04978725487032592,0.5548652272122037,-0.01395954316942015,-0.024049368191163517,-0.050242538178063276,0.2799402184396658,0.39856875960000626,-0.3997778871267275
"2,2,3-trimethylbutane",CC(C)(C)C(C)C,7,100.2,0.69,145.2,-25.0,81,258.0,29.7,393.9,,2.18,0.398,0.796,4.08,-0.43894072221361674,-0.4391076907697892,-0.14775600732729102,-0.3799764848924111,2.0278488976497844,-0.3968773929617579,-0.18546248328189247,0.7635324921467072,-0.3162808986391689,-0.024049368191163517,0.5422729120597859,0.3406838489933121,-0.5362890390139895,-0.3997778871267275
octane,CCCCCCCC,8,114.23,0.699,163.4,-57.0,126,295.0,24.6,492.0,7.79,1.88,0.152,0.562,4.57,0.13622298275594974,0.13616168939240642,0.02325094531546458,0.2751194566546205,1.2313811135599464,0.42325595080211637,0.37231345574343666,-0.20392482709508322,1.0238783861137621,6.265144461453593,-0.44525283833662943,-0.5932494707689986,-1.6086259256594553,0.19359511074490732
"2,2-dimethylhexane",CC(C)(C)CCCC,8,114.23,0.696,164.2,-121.0,107,279.0,25.6,466.93,,2.11,0.202,0.974,4.57,0.13622298275594974,0.13616168939240642,-0.03375137223212062,0.3039148826566872,-0.36155445461972896,0.07697742787959169,0.1311130496784295,-0.014227313518261495,0.6813932355657911,-0.024049368191163517,0.3118502369672883,-0.4034256252888541,0.2794202166393988,0.19359511074490732
"2,3-dimethylhexane",CC(C)C(C)CCC,8,114.23,0.712,160.3,,116,293.0,26.6,460.99,,2.07,0.224,1.04,4.57,0.13622298275594974,0.13616168939240642,0.27026098802166715,0.16353718089660996,-0.16243750859726955,0.24100409663236655,0.3421634049853108,0.17547020005856023,0.6002459761220357,-0.024049368191163517,0.1801801369144329,-0.31990313327759057,0.5818742103086331,0.19359511074490732
"2,4-dimethylhexane",CC(C)CC(C)CC,8,114.23,0.699,163.4,,109,282.0,24.9,466.01,,2.04,0.214,1.04,4.57,0.13622298275594974,0.13616168939240642,0.02325094531546458,0.2751194566546205,-0.16243750859726955,0.11342779871354167,0.17633812581561834,-0.14701557302203724,0.6688249731603607,-0.024049368191163517,0.08142756187479211,-0.3578679023736195,0.5818742103086331,0.19359511074490732
"2,5-dimethylhexane",CC(C)CCC(C)C,8,114.23,0.694,164.6,-91.0,109,279.0,25.0,478.01,4.12,2.0,0.186,1.04,4.57,0.13622298275594974,0.13616168939240642,-0.0717529172638441,0.3183125956577211,0.38513409296449386,0.11342779871354167,0.1311130496784295,-0.1280458216643548,0.8327588306224929,0.9833729843835115,-0.050242538178063276,-0.46416925584250035,0.5818742103086331,0.19359511074490732
"3,3-dimethylhexane",CCC(C)(C)CCC,8,114.23,0.709,161.2,-126.0,112,278.0,22.9,450.02,,2.16,0.254,0.974,4.57,0.13622298275594974,0.13616168939240642,0.21325867047408192,0.19593203514893484,-0.4860025458837661,0.1681033549644666,0.11603802429936654,-0.5264106001756806,0.45038310809206944,-0.024049368191163517,0.47643786203335825,-0.20600882598950393,0.2794202166393988,0.19359511074490732
"3,4-dimethylhexane",CCC(C)C(C)CC,8,114.23,0.72,158.7,,117,298.0,27.5,451.96,,2.1,0.251,1.04,4.57,0.13622298275594974,0.13616168939240642,0.422267168148561,0.10594632889247454,-0.16243750859726955,0.25922928204934154,0.41753853188062556,0.3461979622776995,0.47688574838178077,-0.024049368191163517,0.27893271195407515,-0.2173982567183126,0.5818742103086331,0.19359511074490732
3-ethylhexane,CCC(CC)CCC,8,114.23,0.712,160.4,,118,294.0,26.2,466.01,,2.03,0.243,0.974,4.57,0.13622298275594974,0.13616168939240642,0.27026098802166715,0.16713660914686818,-0.16243750859726955,0.2774544674663165,0.35723843036437375,0.09959119462783113,0.6688249731603607,-0.024049368191163517,0.04851003686157753,-0.24777007199513573,0.2794202166393988,0.19359511074490732
3-ethyl-2-methylpentane,CC(C)C(CC)CC,8,114.23,0.718,159.1,-115.0,116,295.0,27.5,450.02,,2.1,0.306,1.04,4.57,0.13622298275594974,0.13616168939240642,0.38426562311683754,0.12034404189350839,-0.2122167451028844,0.24100409663236655,0.37231345574343666,0.3461979622776995,0.45038310809206944,-0.024049368191163517,0.27893271195407515,-0.008592026690153748,0.5818742103086331,0.19359511074490732
3-ethyl-3-methylpentane,CCC(CC)(C)CC,8,114.23,0.726,157.4,-91.0,118,305.0,28.9,434.94,,2.19,0.382,0.974,4.57,0.13622298275594974,0.13616168939240642,0.5362718032437314,0.0591537616391158,0.38513409296449386,0.2774544674663165,0.5230637095340662,0.6117744812852496,0.24437289388132352,-0.024049368191163517,0.575190437072999,0.2799402184396658,0.2794202166393988,0.19359511074490732
2-methylheptane,CC(C)CCCCC,8,114.23,0.698,163.7,-109.0,118,288.0,24.8,488.06,,1.95,0.167,0.974,4.57,0.13622298275594974,0.13616168939240642,0.004250172799602844,0.28591774140539516,-0.06287903558603984,0.2774544674663165,0.26678827808999606,-0.165985324379719,0.9700534362470288,-0.024049368191163517,-0.2148301632441325,-0.5363023171249552,0.2794202166393988,0.19359511074490732
3-methylheptane,CCC(C)CCCC,8,114.23,0.706,161.9,-121.0,119,292.0,25.6,478.01,,1.99,0.186,0.974,4.57,0.13622298275594974,0.13616168939240642,0.15625635292649673,0.22112803290074434,-0.36155445461972896,0.2956796528832915,0.3270883796062478,-0.014227313518261495,0.8327588306224929,-0.024049368191163517,-0.08316006319127713,-0.46416925584250035,0.2794202166393988,0.19359511074490732
4-methylheptane,CCCC(C)CCC,8,114.23,0.716,159.5,-121.0,118,290.0,25.6,475.95,,2.0,0.198,0.974,4.57,0.13622298275594974,0.13616168939240642,0.34626407808511406,0.13474175489454224,-0.36155445461972896,0.2774544674663165,0.29693832884812194,-0.014227313518261495,0.8046168517581602,-0.024049368191163517,-0.050242538178063276,-0.41861153292726566,0.2794202166393988,0.19359511074490732
"2,2,3,3-tetramethylbutane",CC(C)(C)C(C)(C)C,8,114.23,0.722,158.2,97.0,106,271.0,24.5,478.46,,2.3,0.354,0.562,4.57,0.13622298275594974,0.13616168939240642,0.46026871318028445,0.08794918764118248,5.06438232449229,0.05875224246261671,0.010512846645925885,-0.22289457845276564,0.8389063502773227,-0.024049368191163517,0.9372832122183506,0.17363886497078487,-1.6086259256594553,0.19359511074490732
"2,2,3-trimethylpentane",CC(C)(C)C(C)CC,8,114.23,0.716,159.5,-112.0,110,294.0,28.2,437.0,,2.21,0.289,1.07,4.57,0.13622298275594974,0.13616168939240642,0.34626407808511406,0.13474175489454224,-0.13754789034446213,0.13165298413051665,0.35723843036437375,0.47898622178147454,0.2725148727456563,-0.024049368191163517,0.6410254870994267,-0.07313213415340292,0.7193532983401032,0.19359511074490732
"2,2,4-trimethylpentane",CC(C)(C)CC(C)C,8,114.23,0.692,165.1,-107.0,99,271.0,25.6,482.0,4.08,2.15,0.238,1.07,4.57,0.13622298275594974,0.13616168939240642,-0.10975446229556757,0.3363097369090131,-0.013099799080424981,-0.06882405545620818,0.010512846645925885,-0.014227313518261495,0.887266838228652,0.9258059928078157,0.44352033702014365,-0.2667524565431502,0.7193532983401032,0.19359511074490732
"2,3,3-trimethylpentane",CC(C)C(C)(C)CC,8,114.23,0.726,157.4,-109.0,115,303.0,28.9,433.0,,2.22,0.319,1.07,4.57,0.13622298275594974,0.13616168939240642,0.5362718032437314,0.0591537616391158,-0.06287903558603984,0.22277891121539156,0.4929136587759403,0.6117744812852496,0.2178702535916122,-0.024049368191163517,0.6739430121126413,0.04076217313468385,0.7193532983401032,0.19359511074490732
"2,3,4-trimethylpentane",CC(C)C(C)C(C)C,8,114.23,0.72,158.8,-110.0,113,295.0,27.6,446.94,,2.14,0.268,0.662,4.57,0.13622298275594974,0.13616168939240642,0.422267168148561,0.10954575714273378,-0.08776865383884727,0.1863285403814416,0.37231345574343666,0.3651677136353819,0.40830675134345573,-0.024049368191163517,0.41060281200693055,-0.15285814925506344,-1.1503622988878888,0.19359511074490732
nonane,CCCCCCCCC,9,128.26,0.714,179.6,-51.0,151,322.0,22.8,555.0,5.65,1.9,0.121,0.53,5.06,0.7113866877255163,0.7114310695546014,0.3082625330533906,0.8582268331964829,1.380718823076791,0.8788855862264909,0.7793391409781364,-0.5453803515333624,1.8845311377899563,3.1853104121538722,-0.37941778831020173,-0.7109402549666881,-1.7552702862263567,0.7869681086165411
"3,3-diethylpentane",CCC(CC)(CC)CC,9,128.26,0.753,170.4,-41.0,139,324.0,22.6,,,2.24,0.382,0.965,5.06,0.7113866877255163,0.7114310695546014,1.0492926611719982,0.5270794341727094,1.6296150056048653,0.6601833612227912,0.8094891917362622,-0.5833198542487267,0.23112157373646824,-0.024049368191163517,0.739778062139069,0.2799402184396658,0.2381764902299578,0.7869681086165411
"2,4-dimethyl-3-ethylpentane",CCC(CC)CC,9,128.26,0.738,173.8,-122.0,137,,,,,2.0,0.382,1.0,4.08,0.7113866877255163,0.7114310695546014,0.7642810734340723,0.6494599946814956,-0.3864440728725364,0.6237329903888412,0.37231345574343666,-0.20392482709508322,0.23112157373646824,-0.024049368191163517,-0.050242538178063276,0.2799402184396658,0.39856875960000626,-0.3997778871267275
"2,2-dimethylheptane",CC(C)(C)CCCCC,9,128.26,,,-113.0,133,295.0,20.6,,,2.12,0.149,0.965,5.06,0.7113866877255163,0.7114310695546014,0.3082625330533906,0.2751194566546205,-0.16243750859726955,0.5508322487209413,0.37231345574343666,-0.96271488140237,0.23112157373646824,-0.024049368191163517,0.34476776198050285,-0.6046389014978073,0.2381764902299578,0.7869681086165411
"2,3-dimethylheptane",CC(C)C(C)CCCC,9,128.26,0.724,177.3,-116.0,141,309.0,21.9,,,2.08,0.163,1.06,5.06,0.7113866877255163,0.7114310695546014,0.49827025821200793,0.77543998344054,-0.23710636335569185,0.6966337320567412,0.583363811050318,-0.7161081137525024,0.23112157373646824,-0.024049368191163517,0.21309766192764748,-0.5514882247633668,0.6735269356629465,0.7869681086165411
"2,4-dimethylheptane",CC(C)CC(C)CCC,9,128.26,0.716,179.2,,134,298.0,21.3,,,2.06,0.166,1.06,5.06,0.7113866877255163,0.7114310695546014,0.34626407808511406,0.843829120195449,-0.16243750859726955,0.5690574341379162,0.41753853188062556,-0.829926621898595,0.23112157373646824,-0.024049368191163517,0.14726261190121978,-0.5400987940345581,0.6735269356629465,0.7869681086165411
"2,5-dimethylheptane",CC(C)CCC(C)CC,9,128.26,0.715,179.5,,136,301.0,21.2,,,2.04,0.154,1.06,5.06,0.7113866877255163,0.7114310695546014,0.3272633055692523,0.8546274049462247,-0.16243750859726955,0.6055078049718662,0.4627636080178144,-0.8488963732562774,0.23112157373646824,-0.024049368191163517,0.08142756187479211,-0.5856565169497928,0.6735269356629465,0.7869681086165411
"2,6-dimethylheptane",CC(C)CCCC(C)C,9,128.26,0.71,180.7,-103.0,135,304.0,20.8,,,2.0,0.139,1.06,5.06,0.7113866877255163,0.7114310695546014,0.23225944298994367,0.8978205439493252,0.08645867393080474,0.5872826195548912,0.5079886841550032,-0.9247753786870059,0.23112157373646824,-0.024049368191163517,-0.050242538178063276,-0.642603670593836,0.6735269356629465,0.7869681086165411
"3,3-dimethylheptane",CCC(C)(C)CCCC,9,128.26,0.73,175.6,,137,304.0,21.1,,,2.16,0.177,0.965,5.06,0.7113866877255163,0.7114310695546014,0.6122748933071783,0.7142497031861463,-0.16243750859726955,0.6237329903888412,0.5079886841550032,-0.8678661246139592,0.23112157373646824,-0.024049368191163517,0.47643786203335825,-0.4983375480289264,0.2381764902299578,0.7869681086165411
"3,4-dimethylheptane",CCC(C)C(C)CCC,9,128.26,0.731,175.4,,141,311.0,22.3,,,2.11,0.186,1.06,5.06,0.7113866877255163,0.7114310695546014,0.6312756658230401,0.70705084668563,-0.16243750859726955,0.6966337320567412,0.6135138618084439,-0.6402291083217733,0.23112157373646824,-0.024049368191163517,0.3118502369672883,-0.46416925584250035,0.6735269356629465,0.7869681086165411
"3,5-dimethylheptane",CCC(C)CC(C)CC,9,128.26,0.723,177.4,,136,302.0,21.5,,,2.07,0.173,1.06,5.06,0.7113866877255163,0.7114310695546014,0.4792694856961462,0.7790394116907983,-0.16243750859726955,0.6055078049718662,0.4778386333968773,-0.7919871191832308,0.23112157373646824,-0.024049368191163517,0.1801801369144329,-0.5135234556673379,0.6735269356629465,0.7869681086165411
"4,4-dimethylheptane",CCCC(C)(C)CCC,9,128.26,0.734,,,135,302.0,21.0,,,2.18,0.198,0.965,5.06,0.7113866877255163,0.7114310695546014,0.6882779833706253,0.2751194566546205,-0.16243750859726955,0.5872826195548912,0.4778386333968773,-0.8868358759716417,0.23112157373646824,-0.024049368191163517,0.5422729120597859,-0.41861153292726566,0.2381764902299578,0.7869681086165411