{
  "linear_alkanes": {
    "methane": {
      "formula": "CH4",
      "SMILES": "C",
      "molecular_weight": 16.04,
      "density": 0.657,
      "boiling_point": -161.5,
      "melting_point": -182.5,
      "heat_of_vaporization": 8.2,
      "solubility_in_water": 0.0002,
      "flash_point": -187.78,
      "autoignition_temperature": 537,
      "heat_of_combustion": -890.4,
      "heat_of_formation": -74.8,
      "viscosity": "N/A",
      "vapour_pressure": "N/A",
      "graph_properties": {
        "perron_frobenius": 1.00,
        "fiedler_eigenvalue": 0.34,
        "compression_ratio": 0.98,
        "information_content": 0.0
      }
    },
    "ethane": {
      "formula": "C2H6",
      "SMILES": "CC",
      "molecular_weight": 30.07,
      "density": 0.3390,
      "boiling_point": -88.6,
      "melting_point": -183.3,
      "heat_of_vaporization": 11.9,
      "solubility_in_water": 0.0017,
      "flash_point": -88,
      "autoignition_temperature": 515,
      "heat_of_combustion": -1560.6,
      "heat_of_formation": -84.7,
      "viscosity": "N/A",
      "vapour_pressure": "N/A",
      "graph_properties": {
        "perron_frobenius": 1.20,
        "fiedler_eigenvalue": 0.45,
        "compression_ratio": 0.95
      }
    },
    "propane": {
      "formula": "C3H8",
      "SMILES": "CCC",
      "molecular_weight": 44.10,
      "density": 0.5004,
      "boiling_point": -42.1,
      "melting_point": -187.7,
      "heat_of_vaporization": 15.9,
      "solubility_in_water": 0.0002,
      "flash_point": -104,
      "autoignition_temperature": 450,
      "heat_of_combustion": -2219.0,
      "heat_of_formation": -103.8,
      "viscosity": "N/A",
      "vapour_pressure": "N/A",
      "graph_properties": {
        "perron_frobenius": 1.40,
        "fiedler_eigenvalue": 0.56,
        "compression_ratio": 0.92
      }
    },
    "n-butane": {
      "formula": "C4H10",
      "SMILES": "CCCC",
      "molecular_weight": 58.12,
      "density": 0.5786,
      "boiling_point": -0.5,
      "melting_point": -138.3,
      "heat_of_vaporization": 22.4,
      "solubility_in_water": 0.0006,
      "flash_point": -60,
      "autoignition_temperature": 405,
      "heat_of_combustion": -2877.0,
      "heat_of_formation": -125.6,
      "viscosity": "N/A",
      "vapour_pressure": "N/A",
      "graph_properties": {
        "perron_frobenius": 1.60,
        "fiedler_eigenvalue": 0.67,
        "compression_ratio": 0.90
      }
    },
    "n-pentane": {
      "formula": "C5H12",
      "SMILES": "CCCCC",
      "molecular_weight": 72.15,
      "density": 0.6262,
      "boiling_point": 36.1,
      "melting_point": -129.7,
      "heat_of_vaporization": 29.2,
      "solubility_in_water": 0.0002,
      "flash_point": -49,
      "autoignition_temperature": 260,
      "heat_of_combustion": -3499.0,
      "heat_of_formation": -158.0,
      "viscosity": "N/A",
      "vapour_pressure": "N/A",
      "graph_properties": {
        "perron_frobenius": 1.80,
        "fiedler_eigenvalue": 0.78,
        "compression_ratio": 0.88
      }
    },
    "n-hexane": {
      "formula": "C6H14",
      "SMILES": "CCCCCC",
      "molecular_weight": 86.18,
      "density": 0.6593,
      "boiling_point": 68.7,
      "melting_point": -95.0,
      "heat_of_vaporization": 35.1,
      "solubility_in_water": 0.0003,
      "flash_point": -22,
      "autoignition_temperature": 225,
      "heat_of_combustion": -4165.0,
      "heat_of_formation": -197.8,
      "viscosity": "N/A",
      "vapour_pressure": "N/A",
      "graph_properties": {
        "perron_frobenius": 2.00,
        "fiedler_eigenvalue": 0.89,
        "compression_ratio": 0.85
      }
    },
    "n-heptane": {
      "formula": "C7H16",
      "SMILES": "CCCCCCC",
      "molecular_weight": 100.20,
      "density": 0.6838,
      "boiling_point": 98.4,
      "melting_point": -90.6,
      "heat_of_vaporization": 36.6,
      "solubility_in_water": 0.0003,
      "flash_point": -4,
      "autoignition_temperature": 215,
      "heat_of_combustion": -4817.0,
      "heat_of_formation": -224.4,
      "viscosity": "N/A",
      "vapour_pressure": "N/A",
      "graph_properties": {
        "perron_frobenius": 2.20,
        "fiedler_eigenvalue": 1.00,
        "compression_ratio": 0.83
      }
    },
    "n-octane": {
      "formula": "C8H18",
      "SMILES": "CCCCCCCC",
      "molecular_weight": 114.23,
      "density": 0.7027,
      "boiling_point": 125.6,
      "melting_point": -56.8,
      "heat_of_vaporization": 41.0,
      "solubility_in_water": 0.0003,
      "flash_point": 13,
      "autoignition_temperature": 210,
      "heat_of_combustion": -5461.0,
      "heat_of_formation": -249.9,
      "viscosity": "N/A",
      "vapour_pressure": "N/A",
      "graph_properties": {
        "perron_frobenius": 2.40,
        "fiedler_eigenvalue": 1.11,
        "compression_ratio": 0.81
      }
    },
    "n-nonane": {
      "formula": "C9H20",
      "SMILES": "CCCCCCCCC",
      "molecular_weight": 128.26,
      "density": 0.7177,
      "boiling_point": 150.8,
      "melting_point": -53.5,
      "heat_of_vaporization": 45.0,
      "solubility_in_water": 0.0002,
      "flash_point": 31,
      "autoignition_temperature": 205,
      "heat_of_combustion": -6105.0,
      "heat_of_formation": -275.4,
      "viscosity": "N/A",
      "vapour_pressure": "N/A",
      "graph_properties": {
        "perron_frobenius": 2.60,
        "fiedler_eigenvalue": 1.22,
        "compression_ratio": 0.79
      }
    },
    "n-decane": {
      "formula": "C10H22",
      "SMILES": "CCCCCCCCCC",
      "molecular_weight": 142.29,
      "density": 0.7301,
      "boiling_point": 174.1,
      "melting_point": -29.7,
      "heat_of_vaporization": 49.0,
      "solubility_in_water": 0.0002,
      "flash_point": 46,
      "autoignition_temperature": 210,
      "heat_of_combustion": -6749.0,
      "heat_of_formation": -300.9,
      "viscosity": "N/A",
      "vapour_pressure": "N/A",
      "graph_properties": {
        "perron_frobenius": 2.80,
        "fiedler_eigenvalue": 1.33,
        "compression_ratio": 0.77
      }
    },
    "n-undecane": {
      "formula": "C11H24",
      "SMILES": "CCCCCCCCCCC",
      "molecular_weight": 156.31,
      "density": 0.7402,
      "boiling_point": 195.9,
      "melting_point": -26.6,
      "heat_of_vaporization": 53.0,
      "solubility_in_water": 0.0002,
      "flash_point": 61,
      "autoignition_temperature": 210,
      "heat_of_combustion": -7393.0,
      "heat_of_formation": -326.4,
      "viscosity": "N/A",
      "vapour_pressure": "N/A",
      "graph_properties": {
        "perron_frobenius": 3.00,
        "fiedler_eigenvalue": 1.44,
        "compression_ratio": 0.75
      }
    },
    "n-dodecane": {
      "formula": "C12H26",
      "SMILES": "CCCCCCCCCCCC",
      "molecular_weight": 170.34,
      "density": 0.7588,
      "boiling_point": 216.3,
      "melting_point": -10.0,
      "heat_of_vaporization": 57.0,
      "solubility_in_water": 0.0002,
      "flash_point": 74,
      "autoignition_temperature": 210,
      "heat_of_combustion": -8037.0,
      "heat_of_formation": -351.9,
      "viscosity": "N/A",
      "vapour_pressure": "N/A",
      "graph_properties": {
        "perron_frobenius": 3.20,
        "fiedler_eigenvalue": 1.56,
        "compression_ratio": 0.73
      }
    },
    "n-tridecane": {
      "formula": "C13H28",
      "SMILES": "CCCCCCCCCCCCC",
      "molecular_weight": 184.37,
      "density": 0.7561,
      "boiling_point": 234.4,
      "melting_point": -5.5,
      "heat_of_vaporization": 61.0,
      "solubility_in_water": 0.0002,
      "flash_point": 86,
      "autoignition_temperature": 210,
      "heat_of_combustion": -8681.0,
      "heat_of_formation": -377.4,
      "viscosity": "N/A",
      "vapour_pressure": "N/A",
      "graph_properties": {
        "perron_frobenius": 3.40,
        "fiedler_eigenvalue": 1.67,
        "compression_ratio": 0.71
      }
    },
    "n-tetradecane": {
      "formula": "C14H30",
      "SMILES": "CCCCCCCCCCCCCC",
      "molecular_weight": 198.39,
      "density": 0.7626,
      "boiling_point": 253.6,
      "melting_point": 5.9,
      "heat_of_vaporization": 65.0,
      "solubility_in_water": 0.0002,
      "flash_point": 98,
      "autoignition_temperature": 210,
      "heat_of_combustion": -9325.0,
      "heat_of_formation": -402.9,
      "viscosity": "N/A",
      "vapour_pressure": "N/A",
      "graph_properties": {
        "perron_frobenius": 3.60,
        "fiedler_eigenvalue": 1.78,
        "compression_ratio": 0.69
      }
    },
    "n-pentadecane": {
      "formula": "C15H32",
      "SMILES": "CCCCCCCCCCCCCCC",
      "molecular_weight": 212.42,
      "density": 0.7684,
      "boiling_point": 270.7,
      "melting_point": 10.0,
      "heat_of_vaporization": 69.0,
      "solubility_in_water": 0.0002,
      "flash_point": 110,
      "autoignition_temperature": 210,
      "heat_of_combustion": -9969.0,
      "heat_of_formation": -428.4,
      "viscosity": "N/A",
      "vapour_pressure": "N/A",
      "graph_properties": {
        "perron_frobenius": 3.80,
        "fiedler_eigenvalue": 1.89,
        "compression_ratio": 0.67
      }
    },
    "n-hexadecane": {
      "formula": "C16H34",
      "SMILES": "CCCCCCCCCCCCCCCC",
      "molecular_weight": 226.45,
      "density": 0.7735,
      "boiling_point": 287.0,
      "melting_point": 18.2,
      "heat_of_vaporization": 73.0,
      "solubility_in_water": 0.0002,
      "flash_point": 122,
      "autoignition_temperature": 210,
      "heat_of_combustion": -10613.0,
      "heat_of_formation": -453.9,
      "viscosity": "N/A",
      "vapour_pressure": "N/A",
      "graph_properties": {
        "perron_frobenius": 4.00,
        "fiedler_eigenvalue": 2.00,
        "compression_ratio": 0.65
      }
    },
    "n-heptadecane": {
      "formula": "C17H36",
      "SMILES": "CCCCCCCCCCCCCCCCC",
      "molecular_weight": 240.48,
      "density": 0.7780,
      "boiling_point": 302.0,
      "melting_point": 22.0,
      "heat_of_vaporization": 77.0,
      "solubility_in_water": 0.0002,
      "flash_point": 134,
      "autoignition_temperature": 210,
      "heat_of_combustion": -11257.0,
      "heat_of_formation": -479.4,
      "viscosity": "N/A",
      "vapour_pressure": "N/A",
      "graph_properties": {
        "perron_frobenius": 4.20,
        "fiedler_eigenvalue": 2.11,
        "compression_ratio": 0.63
      }
    },
    "n-octadecane": {
      "formula": "C18H38",
      "SMILES": "CCCCCCCCCCCCCCCCCC",
      "molecular_weight": 254.50,
      "density": 0.7728,
      "boiling_point": 316.0,
      "melting_point": 28.2,
      "heat_of_vaporization": 81.0,
      "solubility_in_water": 0.0002,
      "flash_point": 146,
      "autoignition_temperature": 210,
      "heat_of_combustion": -11901.0,
      "heat_of_formation": -504.9,
      "viscosity": "N/A",
      "vapour_pressure": "N/A",
      "graph_properties": {
        "perron_frobenius": 4.40,
        "fiedler_eigenvalue": 2.22,
        "compression_ratio": 0.61
      }
    },
    "n-nonadecane": {
      "formula": "C19H40",
      "SMILES": "CCCCCCCCCCCCCCCCCCC",
      "molecular_weight": 268.53,
      "density": 0.7835,
      "boiling_point": 330.0,
      "melting_point": 32.0,
      "heat_of_vaporization": 85.0,
      "solubility_in_water": 0.0002,
      "flash_point": 158,
      "autoignition_temperature": 210,
      "heat_of_combustion": -12545.0,
      "heat_of_formation": -530.4,
      "viscosity": "N/A",
      "vapour_pressure": "N/A",
      "graph_properties": {
        "perron_frobenius": 4.60,
        "fiedler_eigenvalue": 2.33,
        "compression_ratio": 0.59
      }
    },
    "n-eicosane": {
      "formula": "C20H42",
      "SMILES": "CCCCCCCCCCCCCCCCCCCC",
      "molecular_weight": 282.56,
      "density": 0.7843,
      "boiling_point": 343.0,
      "melting_point": 36.0,
      "heat_of_vaporization": 89.0,
      "solubility_in_water": 0.0002,
      "flash_point": 170,
      "autoignition_temperature": 210,
      "heat_of_combustion": -13189.0,
      "heat_of_formation": -555.9,
      "viscosity": "N/A",
      "vapour_pressure": "N/A",
      "graph_properties": {
        "perron_frobenius": 4.80,
        "fiedler_eigenvalue": 2.44,
        "compression_ratio": 0.57
      }
    },
    "n-heneicosane": {
      "formula": "C21H44",
      "SMILES": "CCCCCCCCCCCCCCCCCCCCC",
      "molecular_weight": 296.59,
      "density": 0.7916,
      "boiling_point": 355.0,
      "melting_point": 39.0,
      "heat_of_vaporization": "N/A",
      "solubility_in_water": "N/A",
      "flash_point": "N/A",
      "autoignition_temperature": "N/A",
      "heat_of_combustion": -13833.0,
      "heat_of_formation": "N/A",
      "viscosity": "N/A",
      "vapour_pressure": "N/A",
      "graph_properties": {
        "perron_frobenius": 5.00,
        "fiedler_eigenvalue": 2.56,
        "compression_ratio": 0.55
      }
    },
    "n-docosane": {
      "formula": "C22H46",
      "SMILES": "CCCCCCCCCCCCCCCCCCCCCC",
      "molecular_weight": 310.62,
      "density": 0.7943,
      "boiling_point": 366.0,
      "melting_point": 42.0,
      "heat_of_vaporization": "N/A",
      "solubility_in_water": "N/A",
      "flash_point": "N/A",
      "autoignition_temperature": "N/A",
      "heat_of_combustion": -14477.0,
      "heat_of_formation": "N/A",
      "viscosity": "N/A",
      "vapour_pressure": "N/A",
      "graph_properties": {
        "perron_frobenius": 5.20,
        "fiedler_eigenvalue": 2.67,
        "compression_ratio": 0.53
      }
    },
    "n-tricosane": {
      "formula": "C23H48",
      "SMILES": "CCCCCCCCCCCCCCCCCCCCCCC",
      "molecular_weight": 324.65,
      "density": 0.7968,
      "boiling_point": 377.0,
      "melting_point": 45.0,
      "heat_of_vaporization": "N/A",
      "solubility_in_water": "N/A",
      "flash_point": "N/A",
      "autoignition_temperature": "N/A",
      "heat_of_combustion": -15121.0,
      "heat_of_formation": "N/A",
      "viscosity": "N/A",
      "vapour_pressure": "N/A",
      "graph_properties": {
        "perron_frobenius": 5.40,
        "fiedler_eigenvalue": 2.78,
        "compression_ratio": 0.51
      }
    },
    "n-tetracosane": {
      "formula": "C24H50",
      "SMILES": "CCCCCCCCCCCCCCCCCCCCCCCC",
      "molecular_weight": 338.68,
      "density": 0.7990,
      "boiling_point": 388.0,
      "melting_point": 48.0,
      "heat_of_vaporization": "N/A",
      "solubility_in_water": "N/A",
      "flash_point": "N/A",
      "autoignition_temperature": "N/A",
      "heat_of_combustion": -15765.0,
      "heat_of_formation": "N/A",
      "viscosity": "N/A",
      "vapour_pressure": "N/A",
      "graph_properties": {
        "perron_frobenius": 5.60,
        "fiedler_eigenvalue": 2.89,
        "compression_ratio": 0.49
      }
    },
    "n-pentacosane": {
      "formula": "C25H52",
      "SMILES": "CCCCCCCCCCCCCCCCCCCCCCCCCCC",
      "molecular_weight": 352.69,
      "density": 0.8011,
      "boiling_point": 409.0,
      "melting_point": 53.7,
      "heat_of_vaporization": "N/A",
      "solubility_in_water": "N/A",
      "flash_point": "N/A",
      "autoignition_temperature": "N/A",
      "heat_of_combustion": -9440.0,
      "heat_of_formation": "N/A",
      "viscosity": "N/A",
      "vapour_pressure": "N/A",
      "graph_properties": {
        "perron_frobenius": 1.17,
        "fiedler_eigenvalue": 0.53,
        "compression_ratio": 0.98
      }
    },
    "n-hexacosane": {
      "formula": "C26H54",
      "SMILES": "CCCCCCCCCCCCCCCCCCCCCCCCCC",
      "molecular_weight": 366.72,
      "density": 0.8031,
      "boiling_point": 421.0,
      "melting_point": 56.4,
      "heat_of_vaporization": "N/A",
      "solubility_in_water": "N/A",
      "flash_point": "N/A",
      "autoignition_temperature": "N/A",
      "heat_of_combustion": -9697.0,
      "heat_of_formation": "N/A",
      "viscosity": "N/A",
      "vapour_pressure": "N/A",
      "graph_properties": {
        "perron_frobenius": 6.00,
        "fiedler_eigenvalue": 3.11,
        "compression_ratio": 0.47
      }
    },
    "n-heptacosane": {
      "formula": "C27H56",
      "SMILES": "CCCCCCCCCCCCCCCCCCCCCCCCCCC",
      "molecular_weight": 380.75,
      "density": 0.8049,
      "boiling_point": 432.0,
      "melting_point": 59.0,
      "heat_of_vaporization": "N/A",
      "solubility_in_water": "N/A",
      "flash_point": "N/A",
      "autoignition_temperature": "N/A",
      "heat_of_combustion": -9954.0,
      "heat_of_formation": "N/A",
      "viscosity": "N/A",
      "vapour_pressure": "N/A",
      "graph_properties": {
        "perron_frobenius": 6.20,
        "fiedler_eigenvalue": 3.22,
        "compression_ratio": 0.45
      }
    },
    "n-octacosane": {
      "formula": "C28H58",
      "SMILES": "CCCCCCCCCCCCCCCCCCCCCCCCCCCC",
      "molecular_weight": 394.78,
      "density": 0.8066,
      "boiling_point": 443.0,
      "melting_point": 61.4,
      "heat_of_vaporization": "N/A",
      "solubility_in_water": "N/A",
      "flash_point": "N/A",
      "autoignition_temperature": "N/A",
      "heat_of_combustion": -10211.0,
      "heat_of_formation": "N/A",
      "viscosity": "N/A",
      "vapour_pressure": "N/A",
      "graph_properties": {
        "perron_frobenius": 6.40,
        "fiedler_eigenvalue": 3.33,
        "compression_ratio": 0.43
      }
    },
    "n-nonacosane": {
      "formula": "C29H60",
      "SMILES": "CCCCCCCCCCCCCCCCCCCCCCCCCCCCC",
      "molecular_weight": 408.81,
      "density": 0.8082,
      "boiling_point": 454.0,
      "melting_point": 63.7,
      "heat_of_vaporization": "N/A",
      "solubility_in_water": "N/A",
      "flash_point": "N/A",
      "autoignition_temperature": "N/A",
      "heat_of_combustion": -10468.0,
      "heat_of_formation": "N/A",
      "viscosity": "N/A",
      "vapour_pressure": "N/A",
      "graph_properties": {
        "perron_frobenius": 6.60,
        "fiedler_eigenvalue": 3.44,
        "compression_ratio": 0.41
      }
    },
    "n-triacontane": {
      "formula": "C30H62",
      "SMILES": "CCCCCCCCCCCCCCCCCCCCCCCCCCCCCCCC",
      "molecular_weight": 422.84,
      "density": 0.8096,
      "boiling_point": 465.0,
      "melting_point": 65.8,
      "heat_of_vaporization": "N/A",
      "solubility_in_water": "N/A",
      "flash_point": "N/A",
      "autoignition_temperature": "N/A",
      "heat_of_combustion": -10725.0,
      "heat_of_formation": "N/A",
      "viscosity": "N/A",
      "vapour_pressure": "N/A",
      "graph_properties": {
        "perron_frobenius": 1.22,
        "fiedler_eigenvalue": 0.58,
        "compression_ratio": 0.98
      }
    }
  }
}
